# vtk DataFile Version 3.0
vtk output
ASCII
DATASET UNSTRUCTURED_GRID
POINTS 18676 float
 53.8019   -5.35 -0.0838362
  56.645   -5.35 -1.3963
 54.9645 -7.4748 -2.41476
  57.512 -7.7189 -1.24871
 109.177 -3.65091   -4.78
  108.89 0.133751 -1.68288
 112.098 -1.4893 -1.80486
  108.42 -3.61974 0.163131
 136.947 1.75708 -3.45327
 136.159 0.290766 -3.8639
 137.744 -0.437625 -1.55003
 139.457 0.615555 -3.82546
 40.1525   -12.5 0.675318
 41.3414 -10.1882    4.78
  39.124   -12.5    4.78
 38.6781 -9.9056 0.297519
  115.29 4.35122  -1.804
 113.838 4.17405   -4.78
 113.612 7.63392 -1.21665
 111.685  5.0135 -0.672312
 141.762 3.85677 0.371751
  142.13 3.78328 -0.835794
 139.353 3.77025 -0.893212
 141.361 2.45489 -1.19025
 27.7451   -12.5 2.07449
 30.3031   -12.5    4.78
 26.9132 -8.71437    4.78
  30.694 -10.2437 2.10628
 101.378 9.28982 0.839717
 98.5323 9.02999 -0.212806
 100.532 7.33278 -1.65516
 102.028 9.70509 -2.11291
 53.9752 -8.82607 1.59004
 52.3368 -9.01721    4.78
 53.8351   -5.35    4.78
 55.3214 -9.22285    4.78
 151.168 2.79706 2.68067
 151.211 1.58454 -0.215574
 149.552 3.52387  1.6098
 148.631 0.952202 1.77667
 129.882 -1.84227 -3.40849
  130.57 -1.80416 -0.237385
 127.331 -1.03278 -0.57444
 129.794 -0.674868 -3.81514
 152.965 -1.40298 -0.151741
  153.09 0.0720423 -2.07229
 154.692 1.36467 -0.291644
 151.211 1.58454 -0.215574
 125.662 1.39899 0.855907
 127.699 1.04555 -1.41391
 129.129 0.755775 1.04671
  126.77 3.86268 -0.299745
  120.01 -2.02838 3.11172
 121.811 -1.60946    4.78
  122.07 -0.633975 3.82233
 121.716 -1.97396 3.33395
 48.6091 7.98505 -2.05549
 52.9234 8.75484 -1.47396
 51.7655 9.25095   -4.78
  51.658    5.35 -1.98019
 3.69877 -10.8967 -2.16255
   1.657 -10.608 -1.84045
 4.05299 -9.41989 0.212646
 2.93923   -12.5 0.556818
 25.0836 -7.19603   -4.78
 24.9976   -5.35 -2.21591
 25.1536 -8.75183 -2.37378
 22.4226   -5.35   -4.78
 149.699 2.03396 3.29719
 151.168 2.79706 2.68067
 151.296 0.183662 2.01703
 152.508  1.7708  3.4465
 67.2951   -5.35 -2.30767
 64.7485   -5.35 0.979306
 66.3383 -9.36582 -0.884183
 63.8974 -8.72566 -2.21338
     122  -7e-15   -4.78
 120.242 0.459261 -2.86944
 121.996 -0.235728 -3.86735
 120.668 -0.83978   -4.78
 70.1176    5.35 -1.2234
 72.9627    5.35 0.318643
 73.6877 8.73381 -1.71147
 72.9973    5.35   -4.78
 52.0911 -9.24911 -2.10576
 53.2819   -12.5 -2.24856
 49.9235   -12.5   -4.78
  49.972   -12.5 -2.05178
 111.203 5.59191   -4.78
  109.72 6.97134 -1.98422
 113.612 7.63392 -1.21665
 111.685  5.0135 -0.672312
 159.863 -2.17996 3.20234
 160.979 -2.95656 2.50437
 161.365 -1.28893   2.721
 160.309 -0.279358 1.94936
 73.6877 8.73381 -1.71147
 76.0694    12.5 -2.26445
 74.8188    12.5  1.2223
 72.1085    12.5 -2.00727
 55.7353 -10.2678 -0.735232
 53.4762   -12.5 0.793948
 53.9752 -8.82607 1.59004
 55.6878 -10.756 2.54669
  123.14 -1.20159 -1.34068
 127.331 -1.03278 -0.57444
 125.527 -1.7431 -3.46046
  124.23 -2.63861 -2.83721
 112.585 -4.23732    4.78
 113.973 -6.94699    4.78
 115.165 -5.88065 2.92536
 113.505 -7.5075 2.43101
 138.472 0.124141 2.45339
 139.966 -0.241076 2.44895
  139.33 -1.41552 2.19302
 138.884 -0.970844 3.75089
 142.097 2.80056 -2.67745
 143.206 3.42261 -1.8161
 144.232 2.44638 -3.00464
  142.44 1.70034 -1.92211
 144.097 -2.09557 3.25927
 142.805 -1.73928 3.46241
  143.23 -2.74323 2.73606
 142.523 -1.32295 2.21422
 62.2927   -12.5 -0.497264
 60.0794 -9.45159  -1.694
 63.8974 -8.72566 -2.21338
 63.0444 -8.54897  1.2456
 136.973 -0.390473 0.921423
 134.186 -3.8295 0.589635
 133.597 -0.646931 0.895649
 133.693 -3.47497  1.7732
 115.434 -5.38118 -2.60847
 117.596 -3.50044 -1.92309
 118.824 -6.18015 -1.05974
 114.927 -6.25576 -0.0347836
  135.57 -3.84694 -0.462446
 132.921 -3.81015 -0.702685
 133.597 -0.646931 0.895649
 134.186 -3.8295 0.589635
 160.225 -0.213392 -3.86802
 159.751 -1.52891  -2.246
 160.972 -0.126907 -2.54624
 161.054 -1.66605 -3.49733
 64.7691   -12.5   -4.78
 61.2225   -12.5   -4.78
 63.8974 -8.72566 -2.21338
 62.2927   -12.5 -0.497264
 112.416 -4.2489 -0.99899
 109.177 -3.65091   -4.78
 112.098 -1.4893 -1.80486
  108.42 -3.61974 0.163131
 157.753 -1.48813 -0.971071
 155.315 -1.94367 -1.1651
 156.239 -3.01059 -2.43826
 156.513 -2.17448 -3.20615
 136.042 -2.54439 2.89695
 133.693 -3.47497  1.7732
 139.124 -3.38912 1.87794
 136.973 -0.390473 0.921423
 112.098 -1.4893 -1.80486
  108.89 0.133751 -1.68288
 110.875 -1.55786 1.76335
  108.42 -3.61974 0.163131
 112.416 -4.2489 -0.99899
 112.098 -1.4893 -1.80486
 110.875 -1.55786 1.76335
  108.42 -3.61974 0.163131
 64.7691   -12.5   -4.78
 62.2927   -12.5 -0.497264
 63.8974 -8.72566 -2.21338
 66.3383 -9.36582 -0.884183
 29.8067   -5.35 -1.52628
 33.5352   -5.35 -1.50158
 33.1518   -5.35   -4.78
 31.4392 -8.12187   -4.78
  153.31 -3.68343 -1.2009
 155.315 -1.94367 -1.1651
 153.762 -3.13746 -2.27262
 155.471 -3.53673 -1.58109
 31.1794 9.35759 1.36509
 31.4197    12.5 -1.50202
  30.556    12.5 2.51723
 28.0335    12.5 -0.427615
 138.829 -2.7069 2.77278
  139.33 -1.41552 2.19302
 136.973 -0.390473 0.921423
 139.124 -3.38912 1.87794
 118.794 -2.97274 1.21143
 122.161 -1.69597 1.15068
 120.912 -3.74815 0.981325
 121.127 -3.39874 1.85998
  120.01 -2.02838 3.11172
 118.794 -2.97274 1.21143
 120.064 -4.83418 1.49855
 121.127 -3.39874 1.85998
 151.211 1.58454 -0.215574
 150.193 3.85991 0.335386
 149.552 3.52387  1.6098
 147.442  1.4122 -0.182022
 64.2501    12.5 -4.68969
  66.214 8.69277   -4.78
 61.8223 8.78858   -4.78
 63.7354 8.09277 -2.22853
 133.597 -0.646931 0.895649
 136.076 0.00203545 3.87421
 136.973 -0.390473 0.921423
 137.022 -0.877874 3.77389
 135.732 -1.23476 -1.53486
 136.973 -0.390473 0.921423
 133.597 -0.646931 0.895649
 134.932 1.33638 -0.735896
 143.342 -1.67615 -3.49285
 145.155 -0.608978 -3.82631
 144.076 -1.29997 -1.74307
 142.678 -0.256243 -3.86609
 149.758 -3.21884 2.15666
 147.414 -3.34027   1.963
 149.243 -1.25038 0.501179
 147.507 -2.48222 2.93262
 149.042 -3.86893 -0.213477
 145.862 -3.71353 -1.27875
 147.881 -3.55337 -1.54473
  146.94 -2.02533 -0.650384
 75.4827 -9.82823 1.84446
 77.2064 -9.66729    4.78
 75.2076 -7.08376    4.78
 79.1511 -8.24515 2.16402
  135.57 -3.84694 -0.462446
 136.973 -0.390473 0.921423
 133.597 -0.646931 0.895649
 135.732 -1.23476 -1.53486
 135.732 -1.23476 -1.53486
 133.086 -2.76009 -2.71944
 133.597 -0.646931 0.895649
 134.084 -3.44694 -1.7691
  148.88 3.51117 -1.6381
 147.442  1.4122 -0.182022
 148.723 3.81607 -0.668582
 151.211 1.58454 -0.215574
 137.022 -0.877874 3.77389
 136.973 -0.390473 0.921423
 133.597 -0.646931 0.895649
  136.64 -1.85498 3.40147
 62.2927   -12.5 -0.497264
 63.0444 -8.54897  1.2456
 63.8974 -8.72566 -2.21338
 66.3383 -9.36582 -0.884183
 63.8974 -8.72566 -2.21338
 60.0794 -9.45159  -1.694
 62.2927   -12.5 -0.497264
 61.2225   -12.5   -4.78
 84.5527   -5.35 -0.0545642
 82.7899 -7.99109 2.01511
 85.7766 -5.3454    4.78
 85.9009 -8.33959 1.39435
 139.353 3.77025 -0.893212
 139.653 3.05634 -2.50556
 136.644 3.50326 -1.65538
 138.967  1.6899 -0.695247
 84.5527   -5.35 -0.0545642
  84.148 -9.21298 -1.54445
 82.7899 -7.99109 2.01511
 85.9009 -8.33959 1.39435
 79.1511 -8.24515 2.16402
 81.1134 -9.91881    4.78
 77.2064 -9.66729    4.78
 78.4328   -5.35    4.78
 92.2604 7.46272 -2.31802
 89.2616  9.2296 -1.95906
 88.8289    5.35 0.173174
 88.7369    5.35   -4.78
 73.6877 8.73381 -1.71147
 72.9973    5.35   -4.78
 70.6428  8.8268   -4.78
 70.1176    5.35 -1.2234
  66.214 8.69277   -4.78
 61.8223 8.78858   -4.78
 63.7354 8.09277 -2.22853
 64.6211    5.35 -4.71447
  135.57 -3.84694 -0.462446
 136.973 -0.390473 0.921423
 138.713 -3.86053 -0.32739
 137.973 -3.77196 0.884959
 141.398 -3.75657 0.949808
 140.279 -1.05193 0.272783
 143.927 -1.94477 0.672302
 141.105 -2.23109 1.39971
 27.4048 -9.81275 -0.25515
 27.8208 -9.20024   -4.78
 31.1018 -9.62234 -2.05375
 27.8377 -7.36545 -2.27635
 30.9951    5.35 -0.996361
 35.8749    5.35 0.0612463
 32.4225    5.35 2.05658
 34.0272 9.03447 -1.62426
 60.4339 -7.82992   -4.78
 61.2225   -12.5   -4.78
 60.0794 -9.45159  -1.694
 62.9958 -8.92153   -4.78
 64.7691   -12.5   -4.78
 61.2225   -12.5   -4.78
 62.9958 -8.92153   -4.78
 63.8974 -8.72566 -2.21338
 27.8208 -9.20024   -4.78
 25.1536 -8.75183 -2.37378
 22.6518 -9.59771   -4.78
 25.0836 -7.19603   -4.78
 62.9958 -8.92153   -4.78
 60.0794 -9.45159  -1.694
 63.8974 -8.72566 -2.21338
 61.2225   -12.5   -4.78
 98.5323 9.02999 -0.212806
 99.9033 8.98112   -4.78
 100.126    12.5 -1.63894
 96.5359    12.5 -0.492525
 118.794 -2.97274 1.21143
 120.912 -3.74815 0.981325
 122.161 -1.69597 1.15068
 120.833 -3.86933 -0.202325
 31.1018 -9.62234 -2.05375
 27.8377 -7.36545 -2.27635
 27.8208 -9.20024   -4.78
 31.4392 -8.12187   -4.78
 95.8437 7.93646 -2.17826
 99.9033 8.98112   -4.78
 98.5323 9.02999 -0.212806
 96.5359    12.5 -0.492525
 100.126    12.5 -1.63894
 99.9033 8.98112   -4.78
 98.5236    12.5   -4.78
 96.5359    12.5 -0.492525
 129.041  3.6481 1.30502
  126.77 3.86268 -0.299745
 125.662 1.39899 0.855907
 129.129 0.755775 1.04671
 129.498 1.64619 -3.50751
 133.013 2.27513 -3.13677
 133.628  1.0046 -3.74215
 131.622 1.41905 -0.337456
  76.378 -12.4262   -4.78
 72.6192 -8.78664   -4.78
 76.3378 -8.9209   -4.78
  73.519 -10.0282 -1.91578
 144.867 0.163922 3.87083
 144.426 -1.03856 3.73303
 147.341 -0.254441 3.86637
 145.127 -0.00378764 2.14618
 27.8377 -7.36545 -2.27635
 25.1536 -8.75183 -2.37378
 27.8208 -9.20024   -4.78
 25.0836 -7.19603   -4.78
 127.331 -1.03278 -0.57444
  123.14 -1.20159 -1.34068
 124.429 -3.53589 -1.58505
  124.23 -2.63861 -2.83721
  76.378 -12.4262   -4.78
  73.519 -10.0282 -1.91578
 76.3378 -8.9209   -4.78
 77.3496 -8.96698  -1.644
 127.331 -1.03278 -0.57444
     128 -3.36038 1.92925
  130.57 -1.80416 -0.237385
 126.757 -3.77997 0.850268
 143.615 1.43635 -0.00687728
  142.13 3.78328 -0.835794
 143.206 3.42261 -1.8161
 145.748 3.73146 -1.04213
 141.762 3.85677 0.371751
 145.748 3.73146 -1.04213
  142.13 3.78328 -0.835794
 143.615 1.43635 -0.00687728
  156.17 3.78873 -0.810171
 155.768 3.85496 0.393265
 154.692 1.36467 -0.291644
[...]
10 10 10 10 10 10 10 10 10 10 10 10 10 10 10 10 10 10 10 10 10 10 10 10 10 10 10 10 10 10 10 10 10 10 10 10 10 10 10 10 10 10 10 10 10 10 10 10 10 10 10 10 10 10 10 10 10 10 10 10 10 10 10 10 10 10 10 10 10 10 10 10 10 10 10 10 10 10 10 10 10 10 10 10 10 10 10 10 10 10 10 10 10 10 10 10 10 10 10 10 10 10 10 10 10 10 10 10 10 10 10 10 10 10 10 10 10 10 10 10 10 10 10 10 10 10 10 10 10 10 10 10 10 10 10 10 10 10 10 10 10 10 10 10 10 10 10 10 10 10 10 10 10 10 10 10 10 10 10 10 10 10 10 10 10 10 10 10 10 10 10 10 10 10 10 10 10 10 10 10 10 10 10 10 10 10 10 10 10 10 10 10 10 10 10 10 10 10 10 10 10 10 10 10 10 10 10 10 10 10 10 10 10 10 10 10 10 10 10 10 10 10 10 10 10 10 10 10 10 10 10 10 10 10 10 10 10 10 10 10 10 10 10 10 10 10 10 10 10 10 10 10 10 10 10 10 10 10 10 10 10 10 10 10 10 10 10 10 10 10 10 10 10 10 10 10 10 10 10 10 10 10 10 10 10 10 10 10 10 10 10 10 10 10 10 10 10 10 10 10 10 10 10 10 10 10 10 10 10 10 10 10 10 10 10 10 10 10 10 10 10 10 10 10 10 10 10 10 10 10 10 10 10 10 10 10 10 10 10 10 10 10 10 10 10 10 10 10 10 10 10 10 10 10 10 10 10 10 10 10 10 10 10 10 10 10 10 10 10 10 10 10 10 10 10 10 10 10 10 10 10 10 10 10 10 10 10 10 10 10 10 10 10 10 10 10 10 10 10 10 10 10 10 10 10 10 10 10 10 10 10 10 10 10 10 10 10 10 10 10 10 10 10 10 10 10 10 10 10 10 10 10 10 10 10 10 10 10 10 10 10 10 10 10 10 10 10 10 10 10 10 10 10 10 10 10 10 10 10 10 10 10 10 10 10 10 10 10 10 10 10 10 10 10 10 10 10 10 10 10 10 10 10 10 10 10 10 10 10 10 10 10 10 10 10 10 10 10 10 10 10 10 10 10 10 10 10 10 10 10 10 10 10 10 10 10 10 10 10 10 10 10 10 10 10 10 10 10 10 10 10 10 10 10 10 10 10 10 10 10 10 10 10 10 10 10 10 10 10 10 10 10 10 10 10 10 10 10 10 10 10 10 10 10 10 10 10 10 10 10 10 10 10 10 10 10 10 10 10 10 10 10 10 10 10 10 10 10 10 10 10 10 10 10 10 10 10 10 10 10 10 10 10 10 10 10 10 10 10 10 10 10 10 10 10 10 10 10 10 10 10 10 10 10 10 10 10 10 10 10 10 10 10 10 10 10 10 10 10 10 10 10 10 10 10 10 10 10 10 10 10 10 10 10 10 10 10 10 10 10 10 10 10 10 10 10 10 10 10 10 10 10 10 10 10 10 10 10 10 10 10 10 10 10 10 10 10 10 10 10 10 10 10 10 10 10 10 10 10 10 10 10 10 10 10 10 10 10 10 10 10 10 10 10 10 10 10 10 10 10 10 10 10 10 10 10 10 10 10 10 10 10 10 10 10 10 10 10 10 10 10 10 10 10 10 10 10 10 10 10 10 10 10 10 10 10 10 10 10 10 10 10 10 10 10 10 10 10 10 10 10 10 10 10 10 10 10 10 10 10 10 10 10 10 10 10 10 10 10 10 10 10 10 10 10 10 10 10 10 10 10 10 10 10 10 10 10 10 10 10 10 10 10 10 10 10 10 10 10 10 10 10 10 10 10 10 10 10 10 10 10 10 10 10 10 10 10 10 10 10 10 10 10 10 10 10 10 10 10 10 10 10 10 10 10 10 10 10 10 10 10 10 10 10 10 10 10 10 10 10 10 10 10 10 10 10 10 10 10 10 10 10 10 10 10 10 10 10 10 10 10 10 10 10 10 10 10 10 10 10 10 10 10 10 10 10 10 10 10 10 10 10 10 10 10 10 10 10 10 10 10 10 10 10 10 10 10 10 10 10 10 10 10 10 10 10 10 10 10 10 10 10 10 10 10 10 10 10 10 10 10 10 10 10 10 10 10 10 10 10 10 10 10 10 10 10 10 10 10 10 10 10 10 10 10 10 10 10 10 10 10 10 10 10 10 10 10 10 10 10 10 10 10 10 10 10 10 10 10 10 10 10 10 10 10 10 10 10 10 10 10 10 10 10 10 10 10 10 10 10 10 10 10 10 10 10 10 10 10 10 10 10 10 10 10 10 10 10 10 10 10 10 10 10 10 10 10 10 10 10 10 10 10 10 10 10 10 10 10 10 10 10 10 10 10 10 10 10 10 10 10 10 10 10 10 10 10 10 10 10 10 10 10 10 10 10 10 10 10 10 10 10 10 10 10 10 10 10 10 10 10 10 10 10 10 10 10 10 10 10 10 10 10 10 10 10 10 10 10 10 10 10 10 10 10 10 10 10 10 10 10 10 10 10 10 10 10 10 10 10 10 10 10 10 10 10 10 10 10 10 10 10 10 10 10 10 10 10 10 10 10 10 10 10 10 10 10 10 10 10 10 10 10 10 10 10 10 10 10 10 10 10 10 10 10 10 10 10 10 10 10 10 10 10 10 10 10 10 10 10 10 10 10 10 10 10 10 10 10 10 10 10 10 10 10 10 10 10 10 10 10 10 10 10 10 10 10 10 10 10 10 10 10 10 10 10 10 10 10 10 10 10 10 10 10 10 10 10 10 10 10 10 10 10 10 10 10 10 10 10 10 10 10 10 10 10 10 10 10 10 10 10 10 10 10 10 10 10 10 10 10 10 10 10 10 10 10 10 10 10 10 10 10 10 10 10 10 10 10 10 10 10 10 10 10 10 10 10 10 10 10 10 10 10 10 10 10 10 10 10 10 10 10 10 10 10 10 10 10 10 10 10 10 10 10 10 10 10 10 10 10 10 10 10 10 10 10 10 10 10 10 10 10 10 10 10 10 10 10 10 10 10 10 10 10 10 10 10 10 10 10 10 10 10 10 10 10 10 10 10 10 10 10 10 10 10 10 10 10 10 10 10 10 10 10 10 10 10 10 10 10 10 10 10 10 10 10 10 10 10 10 10 10 10 10 10 10 10 10 10 10 10 10 10 10 10 10 10 10 10 10 10 10 10 10 10 10 10 10 10 10 10 10 10 10 10 10 10 10 10 10 10 10 10 10 10 10 10 10 10 10 10 10 10 10 10 10 10 10 10 10 10 10 10 10 10 10 10 10 10 10 10 10 10 10 10 10 10 10 10 10 10 10 10 10 10 10 10 10 10 10 10 10 10 10 10 10 10 10 10 10 10 10 10 10 10 10 10 10 10 10 10 10 10 10 10 10 10 10 10 10 10 10 10 10 10 10 10 10 10 10 10 10 10 10 10 10 10 10 10 10 10 10 10 10 10 10 10 10 10 10 10 10 10 10 10 10 10 10 10 10 10 10 10 10 10 10 10 10 10 10 10 10 10 10 10 10 10 10 10 10 10 10 10 10 10 10 10 10 10 10 10 10 10 10 10 10 10 10 10 10 10 10 10 10 10 10 10 10 10 10 10 10 10 10 10 10 10 10 10 10 10 10 10 10 10 10 10 10 10 10 10 10 10 10 10 10 10 10 10 10 10 10 10 10 10 10 10 10 10 10 10 10 10 10 10 10 10 10 10 10 10 10 10 10 10 10 10 10 10 10 10 10 10 10 10 10 10 10 10 10 10 10 10 10 10 10 10 10 10 10 10 10 10 10 10 10 10 10 10 10 10 10 10 10 10 10 10 10 10 10 10 10 10 10 10 10 10 10 10 10 10 10 10 10 10 10 10 10 10 10 10 10 10 10 10 10 10 10 10 10 10 10 10 10 10 10 10 10 10 10 10 10 10 10 10 10 10 10 10 10 10 10 10 10 10 10 10 10 10 10 10 10 10 10 10 10 10 10 10 10 10 10 10 10 10 10 10 10 10 10 10 10 10 10 10 10 10 10 10 10 10 10 10 10 10 10 10 10 10 10 10 10 10 10 10 10 10 10 10 10 10 10 10 10 10 10 10 10 10 10 10 10 10 10 10 10 10 10 10 10 10 10 10 10 10 10 10 10 10 10 10 10 10 10 10 10 10 10 10 10 10 10 10 10 10 10 10 10 10 10 10 10 10 10 10 10 10 10 10 10 10 10 10 10 10 10 10 10 10 10 10 10 10 10 10 10 10 10 10 10 10 10 10 10 10 10 10 10 10 10 10 10 10 10 10 10 10 10 10 10 10 10 10 10 10 10 10 10 10 10 10 10 10 10 10 10 10 10 10 10 10 10 10 10 10 10 10 10 10 10 10 10 10 10 10 10 10 10 10 10 10 10 10 10 10 10 10 10 10 10 10 10 10 10 10 10 10 10 10 10 10 10 10 10 10 10 10 10 10 10 10 10 10 10 10 10 10 10 10 10 10 10 10 10 10 10 10 10 10 10 10 10 10 10 10 10 10 10 10 10 10 10 10 10 10 10 10 10 10 10 10 10 10 10 10 10 10 10 10 10 10 10 10 10 10 10 10 10 10 10 10 10 10 10 10 10 10 10 10 10 10 10 10 10 10 10 10 10 10 10 10 10 10 10 10 10 10 10 10 10 10 10 10 10 10 10 10 10 10 10 10 10 10 10 10 10 10 10 10 10 10 10 10 10 10 10 10 10 10 10 10 10 10 10 10 10 10 10 10 10 10 10 10 10 10 10 10 10 10 10 10 10 10 10 10 10 10 10 10 10 10 10 10 10 10 10 10 10 10 10 10 10 10 10 10 10 10 10 10 10 10 10 10 10 10 10 10 10 10 10 10 10 10 10 10 10 10 10 10 10 10 10 10 10 10 10 10 10 10 10 10 10 10 10 10 10 10 10 10 10 10 10 10 10 10 10 10 10 10 10 10 10 10 10 10 10 10 10 10 10 10 10 10 10 10 10 10 10 10 10 10 10 10 10 10 10 10 10 10 10 10 10 10 10 10 10 10 10 10 10 10 10 10 10 10 10 10 10 10 10 10 10 10 10 10 10 10 10 10 10 10 10 10 10 10 10 10 10 10 10 10 10 10 10 10 10 10 10 10 10 10 10 10 10 10 10 10 10 10 10 10 10 10 10 10 10 10 10 10 10 10 10 10 10 10 10 10 10 10 10 10 10 10 10 10 10 10 10 10 10 10 10 10 10 10 10 10 10 10 10 10 10 10 10 10 10 10 10 10 10 10 10 10 10 10 10 10 10 10 10 10 10 10 10 10 10 10 10 10 10 10 10 10 10 10 10 10 10 10 10 10 10 10 10 10 10 10 10 10 10 10 10 10 10 10 10 10 10 10 10 10 10 10 10 10 10 10 10 10 10 10 10 10 10 10 10 10 10 10 10 10 10 10 10 10 10 10 10 10 10 10 10 10 10 10 10 10 10 10 10 10 10 10 10 10 10 10 10 10 10 10 10 10 10 10 10 10 10 10 10 10 10 10 10 10 10 10 10 10 10 10 10 10 10 10 10 10 10 10 10 10 10 10 10 10 10 10 10 10 10 10 10 10 10 10 10 10 10 10 10 10 10 10 10 10 10 10 10 10 10 10 10 10 10 10 10 10 10 10 10 10 10 10 10 10 10 10 10 10 10 10 10 10 10 10 10 10 10 10 10 10 10 10 10 10 10 10 10 10 10 10 10 10 10 10 10 10 10 10 10 10 10 10 10 10 10 10 10 10 10 10 10 10 10 10 10 10 10 10 10 10 10 10 10 10 10 10 10 10 10 10 10 10 10 10 10 10 10 10 10 10 10 10 10 10 10 10 10 10 10 10 10 10 10 10 10 10 10 10 10 10 10 10 10 10 10 10 10 10 10 10 10 10 10 10 10 10 10 10 10 10 10 10 10 10 10 10 10 10 10 10 10 10 10 10 10 10 10 10 10 10 10 10 10 10 10 10 10 10 10 10 10 10 10 10 10 10 10 10 10 10 10 10 10 10 10 10 10 10 10 10 10 10 10 10 10 10 10 10 10 10 10 10 10 10 10 10 10 10 10 10 10 10 10 10 10 10 10 10 10 10 10 10 10 10 10 10 10 10 10 10 10 10 10 10 10 10 10 10 10 10 10 10 10 10 10 10 10 10 10 10 10 10 10 10 10 10 10 10 10 10 10 10 10 10 10 10 10 10 10 10 10 10 10 10 10 10 10 10 10 10 10 10 10 10 10 10 10 10 10 10 10 10 10 10 10 10 10 10 10 10 10 10 10 10 10 10 10 10 10 10 10 10 10 10 10 10 10 10 10 10 10 10 10 10 10 10 10 10 10 10 10 10 10 10 10 10 10 10 10 10 10 10 10 10 10 10 10 10 10 10 10 10 10 10 10 10 10 10 10 10 10 10 10 10 10 10 10 10 10 10 10 10 10 10 10 10 10 10 10 10 10 10 10 10 10 10 10 10 10 10 10 10 10 10 10 10 10 10 10 10 10 10 10 10 10 10 10 10 10 10 10 10 10 10 10 10 10 10 10 10 10 10 10 10 10 10 10 10 10 10 10 10 10 10 10 10 10 10 10 10 10 10 10 10 10 10 10 10 10 10 10 10 10 10 10 10 10 10 10 10 10 10 10 10 10 10 10 10 10 10 10 10 10 10 10 10 10 10 10 10 10 10 10 10 10 10 10 10 10 10 10 10 10 10 10 10 10 10 10 10 10 10 10 10 10 10 10 10 10 10 10 10 10 10 10 10 10 10 10 10 10 10 10 10 10 10 10 10 10 10 10 10 10 10 10 10 10 10 10 10 10 10 10 10 10 10 10 10 10 10 10 10 10 10 10 10 10 10 10 10 10 10 10 10 10 10 10 10 10 10 10 10 10 10 10 10 10 10 10 10 10 10 10 10 10 10 10 10 10 10 10 10 10 10 10 10 10 10 10 10 10 10 10 10 10 10 10 10 10 10 10 10 10 10 10 10 10 10 10 10 10 10 10 10 10 10 10 10 10 10 10 10 10 10 10 10 10 10 10 10 10 10 10 10 10 10 10 10 10 10 10 10 10 10 10 10 10 10 10 10 10 10 10 10 10 10 10 10 10 10 10 10 10 10 10 10 10 10 10 10 10 10 10 10 10 10 10 10 10 10 10 10 10 10 10 10 10 10 10 10 10 10 10 10 10 10 10 10 10 10 10 10 10 10 10 10 10 10 10 10 10 10 10 10 10 10 10 10 10 10 10 10 10 10 10 10 10 10 10 10 10 10 10 10 10 10 10 10 10 10 10 10 10 10 10 10 10 10 10 10 10 10 10 10 10 10 10 10 10 10 10 10 10 10 10 10 10 10 10 10 10 10 10 10 10 10 10 10 10 10 10 10 10 10 10 10 10 10 10 10 10 10 10 10 10 10 10 10 10 10 10 10 10 10 10 10 10 10 10 10 10 10 10 10 10 10 10 10 10 10 10 10 10 10 10 10 10 10 10 10 10 10 10 10 10 10 10 10 10 10 10 10 10 10 10 10 10 10 10 10 10 10 10 10 10 10 10 10 10 10 10 10 10 10 10 10 10 10 10 10 10 10 10 10 10 10 10 10 10 10 10 10 10 10 10 10 10 10 10 10 10 10 10 10 10 10 10 10 10 10 10 10 10 10 10 10 10 10 10 10 10 10 10 10 10 10 10 10 10 10 10 10 10 10 10 10 10 10 10 10 10 10 10 10 10 10 10 10 10 10 10 10 10 10 10 10 10 10 10 10 10 10 10 10 10 10 10 10 10 10 10 10 10 10 10 10 10 10 10 10 10 10 10 10 10 10 10 10 10 10 10 10 10 10 10 10 10 10 10 10 10 10 10 10 10 10 10 10 10 10 10 10 10 10 10 10 10 10 10 10 10 10 10 10 10 10 10 10 10 10 10 10 10 10 10 10 10 10 10 10 10 10 10 10 10 10 10 10 10 10 10 10 10 10 10 10 10 10 10 10 10 10 10 10 10 10 10 10 10 10 10 10 10 10 10 10 10 10 10 10 10 10 10 10 10 10 10 10 10 10 10 10 10 10 10 10 10 10 10 10 10 10 10 10 10 10 10 10 10 10 10 10 10 10 10 10 10 10 10 10 10 10 10 10 10 10 10 10 10 10 10 10 10 10 10 10 10 10 10 10 10 10 10 10 10 10 10 10 10 10 10 10 10 10 10 10 10 10 10 10 10 10 10 10 10 10 10 10 10 10 10 10 10 10 10 10 10 10 10 10 10 10 10 10 10 10 10 10 10 10 10 10 10 10 10 10 10 10 10 10 10 10 10 10 10 10 10 10 10 10 10 10 10 10 10 10 10 10 10 10 10 10 10 10 10 10 10 10 10 10 10 10 10 10 10 10 10 10 10 10 10 10 10 10 10 10 10 10 10 10 10 10 10 10 10 10 10 10 10 10 10 10 10 10 10 10 10 10 10 10 10 10 10 10 10 10 10 10 10 10 10 10 10 10 10 10 10 10 10 10 10 10 10 10 10 10 10 10 10 10 10 10 10 10 10 10 10 10 10 10 10 10 10 10 10 10 10 10 10 10 10 10 10 10 10 10 10 10 10 10 10 10 10 10 10 10 10 10 10 10 10 10 10 10 10 10 10 10 10 10 10 10 10 10 10 10 10 10 10 10 10 10 10 10 10 10 10 10 10 10 10 10 10 10 10 10 10 10 10 10 10 10 10 10 10 10 10 10 10 10 10 10 10 10 10 10 10 10 10 10 10 10 10 10 10 10 10 10 10 10 10 10 10 10 10 10 10 10 10 10 10 10 10 10 10 10 10 10 10 10 10 10 10 10 10 10 10 10 10 10 10 10 10 10 10 10 10 10 10 10 10 10 10 10 10 10 10 10 10 10 10 10 10 10 10 10 10 10 10 10 10 10 10 10 10 10 10 10 10 10 10 10 10 10 10 10 10 10 10 10 10 10 10 10 10 10 10 10 10 10 10 10 10 10 10 10 10 10 10 10 10 10 10 10 10 10 10 10 10 10 10 10 10 10 10 10 10 10 10 10 10 10 10 10 10 10 10 10 10 10 10 10 10 10 10 10 10 10 10 10 10 10 10 10 10 10 10 10 10 10 10 10 10 10 10 10 10 10 10 10 10 10 10 10 10 10 10 10 10 10 10 10 10 10 10 10 10 10 10 10 10 10 10 10 10 10 10 10 10 10 10 10 10 10 10 10 10 10 10 10 10 10 10 10 10 10 10 10 10 10 10 10 10 10 10 10 10 10 10 10 10 10 10 10 10 10 10 10 10 10 10 10 10 10 10 10 10 10 10 10 10 10 10 10 10 10 10 10 10 10 10 10 10 10 10 10 10 10 10 10 10 10 10 10 10 10 10 10 10 10 10 10 10 10 10 10 10 10 10 10 10 10 10 10 10 10 10 10 10 10 10 10 10 10 10 10 10 10 10 10 10 10 10 10 10 10 10 10 10 10 10 10 10 10 10 10 10 10 10 10 10 10 10 10 10 10 10 10 10 10 10 10 10 10 10 10 10 10 10 10 10 10 10 10 10 10 10 10 10 10 10 10 10 10 10 10 10 10 10 10 10 10 10 10 10 10 10 10 10 10 10 10 10 10 10 10 10 10 10 10 10 10 10 10 10 10 10 10 10 10 10 10 10 10 10 10 10 10 10 10 10 10 10 10 10 10 10 10 10 10 10 10 10 10 10 10 10 10 10 10 10 10 10 10 10 10 10 10 10 10 10 10 10 10 10 10 10 10 10 10 10 10 10 10 10 10 10 10 10 10 10 10 10 10 10 10 10 10 10 10 10 10 10 10 10 10 10 10 10 10 10 10 10 10 10 10 10 10 10 10 10 10 10 10 10 10 10 10 10 10 10 10 10 10 10 10 10 10 10 10 10 10 10 10 10 10 10 10 10 10 10 10 10 10 10 10 10 10 10 10 10 10 10 10 10 10 10 10 10 10 10 10 10 10 10 10 10 10 10 10 10 10 10 10 10 10 10 10 10 10 10 10 10 10 10 10 10 10 10 10 10 10 10 10 10 10 10 10 10 10 10 10 10 10 10 10 10 10 10 10 10 10 10 10 10 10 10 10 10 10 10 10 10 10 10 10 10 10 10 10 10 10 10 10 10 10 10 10 10 10 10 10 10 10 10 10 10 10 10 10 10 10 10 10 10 10 10 10 10 10 10 10 10 10 10 10 10 10 10 10 10 10 10 10 10 10 10 10 10 10 10 10 10 10 10 10 10 10 10 10 10 10 10 10 10 10 10 10 10 10 10 10 10 10 10 10 10 10 10 10 10 10 10 10 10 10 10 10 10 10 10 10 10 10 10 10 10 10 10 10 10 10 10 10 10 10 10 10 10 10 10 10 10 10 10 10 10 10 10 10 10 10 10 10 10 10 10 10 10 10 10 10 10 10 10 10 10 10 10 10 10 10 10 10 10 10 10 CELL_DATA 4669
POINT_DATA 18676
SCALARS gfu float 3
LOOKUP_TABLE default