# vtk DataFile Version 4.2
vtk output
ASCII
DATASET UNSTRUCTURED_GRID
POINTS 1407 float
0 -12.5 -4.78 0 -12.5 4.78 0 -5.35 -4.78 
0 -5.35 4.78 0 5.35 -4.78 0 5.35 4.78 
0 12.5 -4.78 0 12.5 4.78 98.2145 -5.34473 4.78 
98.2145 5.34473 4.78 98.4897 5.32595 -4.78 99.0023 -5.24791 -4.68929 
99.4433 5.13695 4.78 99.5969 -5.08665 4.78 99.699 5.05213 -4.78 
100.55 -4.65011 -4.78 100.778 4.50735 4.78 100.866 -4.44558 4.78 
101.265 4.1349 -4.78 101.513 -3.90676 -4.78 101.589 3.82984 4.78 
101.959 -3.4011 4.78 102.28 2.93395 -4.78 102.42 -2.68587 -4.78 
102.529 2.46619 4.78 102.702 -2.04915 4.78 102.85 1.56566 -4.78 
102.857 -1.53483 -4.78 102.974 0.855615 4.78 102.997 -0.461388 4.78 
103 0.00037318 -4.78 113 -12.5 -4.78 113 -12.5 4.78 
113 12.5 -4.78 113 12.5 4.78 120.148 -4.74362 4.78 
119.882 5.03132 4.78 119.986 4.91864 -4.78 120.467 -4.33309 -4.78 
120.064 -4.83418 1.49855 69.4854 8.98731 4.78 120.833 -3.86933 -0.202325 
120.85 3.87367 -0.0819791 120.912 3.75134 0.970512 121.041 3.73016 -1.0476 
120.912 -3.74815 0.981325 121.046 -3.5291 -1.59982 121.127 -3.39874 1.85998 
121.145 3.37088 -1.91049 121.155 3.33374 -4.78 121.236 -3.17525 -4.60466 
121.222 -3.20309 4.78 121.134 3.37146 4.78 121.503 -2.66067 -2.81656 
121.41 -2.81238 2.66535 121.624 2.4094 -3.03442 121.699 2.02853 3.3008 
121.716 -1.97396 3.33395 121.68 1.85467 4.78 121.826 -1.53994 -4.78 
121.851 -1.62277 -3.51863 121.874 1.32144 -3.64219 121.692 2.05448 -4.78 
121.811 -1.60946 4.78 121.923 1.03554 3.73349 122.07 -0.633975 3.82233 
122 -7e-15 -4.78 121.994 0.224534 4.78 63.8974 -8.72566 -2.21338 
121.996 -0.235728 -3.86735 164 -3.80247 0.670676 164 -3.4438 -1.73237 
163.532 -2.88844 -2.58145 164 -2.93266 2.49227 163.927 -2.49799 2.96082 
164 -2.05615 -3.27277 164 -1.59374 3.53208 164 -0.560743 -3.83303 
164 -0.478348 3.81207 72.9627 5.35 0.318643 84.4241 5.35 1.43381 
164 1.59979 3.51415 164 2.09941 -3.25691 46.51 -5.35 0.257528 
163.912 3.05422 -2.38322 164 3.53832 1.48423 75.2076 -7.08376 4.78 
163.748 3.85289 0.408634 164 3.78602 -0.821051 66.6663 5.35 1.90752 
51.7176 -8.47062 -4.78 77.2064 -9.66729 4.78 85.9009 -8.33959 1.39435 
21.9063 -5.35 -0.393669 76.7191 5.41976 4.78 149.098 -2.34756 -3.08195 
156.513 -2.17448 -3.20615 40.3079 5.38244 -0.974838 62.9958 -8.92153 -4.78 
37.487 5.41905 -4.82952 27.8208 -9.20024 -4.78 19.7233 -8.24837 1.24645 
142.13 3.78328 -0.835794 76.3378 -8.9209 -4.78 112.67 2.83546 2.29525 
108.754 3.92623 4.78 115.715 -0.659078 4.78 116.666 -4.81352 4.78 
115.84 4.37306 4.78 5.25616 8.08916 -4.78 104.746 8.86464 0.843385 
66.214 8.69277 -4.78 75.7196 9.03694 -4.78 79.6152 8.55951 -4.78 
68.2139 5.42986 4.78 109.177 -3.65091 -4.78 116.415 -5.01539 -4.78 
116.878 3.90359 -4.78 75.7751 8.13118 4.78 108.437 -5.02067 4.78 
108.01 6.36465 1.46494 27.7203 5.35 -1.11057 107.152 -8.07624 0.564363 
109.935 2.56434 0.78871 155.851 0.894394 -3.83251 30.9097 8.79549 -2.30455 
12.1457 9.24782 0.352234 106.098 -12.5 -0.0479831 110.875 -1.55786 1.76335 
34.8149 9.20297 -4.78 133.693 -3.47497 1.7732 25.0836 -7.19603 -4.78 
156.63 -3.43258 1.7961 34.7912 -5.35 4.78 89.3743 9.39042 1.81646 
34.7389 -9.15103 0.14096 124.178 -3.05654 2.38169 68.7394 -12.5 -4.78 
80.2243 -12.5 -4.78 3.95132 -5.34979 -4.78 145.277 -3.32494 1.98936 
151.211 1.58454 -0.215574 139.124 -3.38912 1.87794 50.2356 -5.35 -2.03192 
87.4212 -7.40259 -2.25642 121.378 2.93478 2.63576 21.9292 5.35 -2.37568 
160.979 -2.95656 2.50437 112.098 -1.4893 -1.80486 48.6091 7.98505 -2.05549 
130.856 -2.71159 2.76806 147.414 -3.34027 1.963 143.23 -2.74323 2.73606 
138.829 -2.7069 2.77278 75.1682 5.35 2.25687 115.016 10.3128 -1.98943 
43.9127 -8.32551 4.78 39.8869 -7.63955 1.08036 11.8931 5.35 0.235078 
87.7745 -8.94942 4.78 94.0378 -5.34757 -4.78 128 -3.36038 1.92925 
163.701 -3.42083 1.81868 44.0064 -5.35 -2.12384 14.3191 -8.42761 4.78 
33.895 -12.5 -4.78 16.2073 -7.92073 2.05555 21.2763 7.25913 2.28595 
106.2 8.36712 4.78 13.5809 -9.10635 1.80185 39.5961 5.35 2.12755 
105.966 -8.69705 4.78 107.289 8.43792 -4.78 91.2213 -7.73992 -1.79731 
142.355 -3.40906 1.84183 35.8749 5.35 0.0612463 24.648 5.35 0.723164 
152.642 -3.14306 2.26494 90.7765 -8.86624 4.78 17.5903 -12.5 0.823785 
26.7865 8.34379 -4.78 48.665 8.96554 -4.78 37.369 8.1472 -4.78 
39.7736 -5.35 2.53445 48.8751 5.35 0.535669 54.9645 -7.4748 -2.41476 
91.4009 -8.5011 1.72136 106.64 -8.2744 -4.78 157.355 -2.68308 2.89433 
43.5091 -5.35 1.78394 118.315 2.40128 4.78 58.7015 5.35 0.0275416 
1.657 -10.608 -1.84045 83.0935 8.24344 -4.78 108.008 12.5 0.0893491 
109.868 2.91369 -4.78 43.6069 5.35 1.3941 63.7354 8.09277 -2.22853 
137.291 -2.02326 -3.30426 16.829 -12.5 -2.3856 148.12 -3.74737 0.985529 
105.929 -12.5 4.78 105.929 12.5 4.78 105.943 -12.5 -4.78 
90.7342 5.35 2.69922 59.7121 10.3363 -1.74372 84.7301 -8.97225 4.78 
4.05299 -9.41989 0.212646 10.9951 -9.45845 0.70217 23.5565 9.63697 2.13809 
110.095 0.00463902 4.78 16.1248 5.35 1.5716 11.8046 7.66235 -4.78 
50.2419 -8.9032 0.915294 80.5686 -8.63972 -0.810258 115.859 -3.58206 1.51773 
81.9772 8.54031 1.84417 94.5028 -8.95065 0.284827 117.748 -1.61704 3.16973 
32.1546 8.71731 -4.78 65.8334 8.97178 4.78 137.359 2.61662 2.85763 
72.4731 9.14533 4.78 24.9926 -12.5 1.63972 124.23 -2.63861 -2.83721 
36.0976 -9.2702 -4.78 99.6161 -7.82341 2.33245 57.9374 9.81157 -4.78 
81.1775 -5.35 0.0492659 111.205 -8.76759 -0.065999 128.863 -2.7673 -2.72479 
57.1949 8.33478 -1.08772 160.861 -2.81933 -2.65758 158.565 -2.66723 -2.80982 
28.8525 12.5 -4.76951 57.512 -7.7189 -1.24871 70.1979 -8.2244 -1.29122 
46.78 -12.5 -4.78 145.226 -2.39033 -3.04942 58.3899 10.1696 1.92978 
12.9209 7.25999 2.7297 113.612 7.63392 -1.21665 20.7846 9.37042 -0.694815 
45.1447 8.77918 -0.714117 50.3139 -5.35 4.78 91.9799 12.5 -0.439411 
20.0046 -8.2702 -2.02894 92.1043 12.5 -4.78 99.9662 12.5 1.28436 
93.0269 5.35 -0.716441 26.5692 -5.35 0.947986 102.365 12.5 -4.78 
36.4957 -10.1385 2.70269 13.7003 12.5 1.50799 19.6331 12.5 2.00489 
107.538 10.203 2.27754 88.9484 -5.3477 4.77311 30.556 12.5 2.51723 
57.0827 -7.04289 1.32091 108.098 0.0576071 2.11889 42.1233 12.5 2.1425 
113.505 -7.5075 2.43101 67.1141 12.5 -1.85965 91.9947 8.29712 4.78 
74.8188 12.5 1.2223 103.308 -6.71707 4.78 83.4397 12.5 2.02998 
5.11172 12.5 -4.78 12.4912 12.5 -4.78 88.6584 12.5 -4.78 
20.4916 12.5 -4.78 25.4617 12.4172 -4.78 31.9789 12.5 -4.78 
37.1097 12.5 -4.78 43.4661 12.5 -4.78 48.5878 12.5 -4.75195 
54.4305 12.4739 -4.78 59.7408 12.5 -4.78 64.2501 12.5 -4.68969 
83.4455 12.5 -4.78 113.992 6.45074 2.51234 118.893 6.10465 1.14626 
49.8871 10.5473 -2.35369 43.6365 -12.5 -4.78 56.3187 5.35 2.56359 
120.01 -2.02838 3.11172 13.875 -5.35 -0.521716 12.4972 5.34687 -4.81857 
117.32 7.81206 2.18122 117.762 -7.33202 1.84604 106.824 1.9858 0.707082 
5.00493 -12.5 -1.81751 20.0236 12.5 -0.544067 92.3429 -5.35 4.78 
101.378 9.28982 0.839717 111.598 8.32244 1.70433 110.122 10.4009 1.66325 
127.699 1.04555 -1.41391 54.4329 8.85491 1.89615 126.757 -3.77997 0.850268 
137.973 -3.77196 0.884959 78.4328 -5.35 4.78 108.457 6.03962 -4.78 
10.5363 -7.22009 2.81191 127.331 -1.03278 -0.57444 93.614 -5.35 -0.122054 
143.909 -3.78661 0.820037 100.327 -8.74267 -1.38778 23.3183 -8.87375 0.177048 
30.5272 -7.665 1.16887 98.1147 10.6073 2.49506 100.126 12.5 -1.63894 
27.4048 -9.81275 -0.25515 39.113 12.5 -0.126303 51.3744 12.5 -0.238015 
33.5352 -5.35 -1.50158 105.678 0.993357 -2.31692 2.93923 -12.5 0.556818 
28.0335 12.5 -0.427615 78.8987 -7.1052 -4.78 95.2853 -12.5 0.194725 
96.5359 12.5 -0.492525 109.898 10.4445 -4.78 27.8377 -7.36545 -2.27635 
131.42 -1.82157 3.4198 46.6036 -9.54075 4.78 98.5323 9.02999 -0.212806 
65.565 9.16646 -0.078615 7.9355 -9.48056 0.0348208 0 -8.57022 -0.925839 
0 8.67416 0.703379 137.022 -0.877874 3.77389 115.29 4.35122 -1.804 
147.002 -1.42925 3.60157 2.34194 10.1772 0.953656 10.2277 -12.5 -0.295729 
28.7965 5.35 2.1106 153.249 -1.11854 3.70916 24.2958 -12.5 -1.6308 
35.7947 -7.20293 2.83497 151.197 -1.41752 3.60632 118.074 -6.94001 4.78 
55.2275 12.5 2.63048 46.6343 -5.35 4.78 70.5942 -5.34243 -4.78 
86.7343 5.35 -2.36957 65.1365 12.5 1.30334 84.9627 8.79729 -0.85217 
97.2507 -12.5 -2.20278 151.168 2.79706 2.68067 105.731 -1.55913 0.0654938 
102.028 9.70509 -2.11291 108.89 0.133751 -1.68288 18.9721 5.35 -4.7732 
70.1176 5.35 -1.2234 29.5728 5.35 -4.78 47.2705 -8.66279 -1.57767 
42.1817 5.38421 -4.78 96.1981 -5.35 -2.57472 58.1761 -9.61269 1.72887 
24.9976 -5.35 -2.21591 29.4546 -5.35 2.47343 67.2951 -5.35 -2.30767 
47.5383 5.4442 -4.78 6.17411 5.34849 -4.78 84.6408 5.32933 -4.78 
88.7369 5.35 -4.78 48.1159 5.35 -3.25835 24.5638 5.34385 -4.85766 
59.0255 5.33559 -4.78 58.469 -5.35 -4.78 47.5383 -5.3449 -4.78 
67.8421 -5.38372 4.78 53.4477 5.35 -4.78 64.6211 5.35 -4.71447 
68.0671 5.38087 -4.78 72.9973 5.35 -4.78 78.2531 5.33089 -4.78 
136.159 0.290766 -3.8639 142.678 -0.256243 -3.86609 150.421 -0.223246 -3.86767 
161.054 -1.66605 -3.49733 145.155 -0.608978 -3.82631 111.203 5.59191 -4.78 
127.113 -3.80823 -0.713819 94.6916 8.84737 1.54103 95.1674 -5.34737 4.77311 
16.5166 -5.35 1.86561 0 -10.2767 2.10942 145.501 -3.87454 0.029193 
49.5731 -8.09626 4.78 68.4283 7.99476 1.49322 30.694 -10.2437 2.10628 
4.37163 5.35 -0.555291 150.842 -3.73253 -1.03749 153.31 -3.68343 -1.2009 
109.72 6.97134 -1.98422 102.973 -0.865399 1.2952 25.1536 -8.75183 -2.37378 
36.9965 -5.35 0.215353 82.0815 -5.3412 -4.78 140.279 -1.05193 0.272783 
84.5527 -5.35 -0.0545642 52.938 -12.5 -4.78 77.3496 -8.96698 -1.644 
2.39573 -12.5 -2.15647 142.536 -3.60947 -1.40748 72.6192 -8.78664 -4.78 
138.967 1.6899 -0.695247 4.32624 10.1097 -1.90598 52.9234 8.75484 -1.47396 
66.3383 -9.36582 -0.884183 21.7149 12.5 4.78 159.61 -3.5642 -1.51992 
154.19 0.274929 2.1203 145.862 -3.71353 -1.27875 55.6878 -10.756 2.54669 
42.7462 -8.79598 -0.369142 2.47185 7.69473 -0.616845 116.734 -8.41654 -4.78 
61.3793 -5.38282 -4.78 155.471 -3.53673 -1.58109 41.463 8.60264 -0.678064 
81.447 5.33011 -4.78 152.965 -1.40298 -0.151741 158.689 -3.87258 0.101032 
[...]
POINT_DATA 1407
FIELD FieldData 10
eigenmode0 3 1407 float
-0.0254178 0.621984 0.23821 0.0113412 0.606191 0.23821 0.00970174 0.621984 0.250021 
0.0464608 0.606191 0.250021 0.0622585 0.621985 0.267697 0.0990172 0.606192 0.267697 
0.0973782 0.621985 0.279509 0.134137 0.606192 0.279509 0.0464866 0.123777 -0.127613 
0.0989916 0.123777 -0.109954 0.0621403 0.138218 -0.111043 0.010552 0.13555 -0.130482 
0.097971 0.117741 -0.115022 0.0477543 0.116987 -0.132502 0.0607953 0.132278 -0.116145 
0.0131395 0.128097 -0.135446 0.0948785 0.111186 -0.121194 0.0509031 0.110755 -0.136321 
0.0562901 0.124587 -0.123682 0.0167907 0.123367 -0.137921 0.0915507 0.107204 -0.12543 
0.0560334 0.105382 -0.138801 0.0503912 0.1196 -0.129569 0.0227876 0.118912 -0.139392 
0.0848526 0.102582 -0.131301 0.062674 0.101735 -0.139423 0.0436704 0.116801 -0.134021 
0.0284413 0.116767 -0.139169 0.0769417 0.100399 -0.13567 0.0704728 0.100284 -0.137936 
0.0359819 0.116064 -0.137183 -0.0254179 0.0669455 -0.196284 0.011341 0.0511526 -0.196284 
0.0973781 0.0669455 -0.154985 0.134137 0.0511526 -0.154985 0.0494391 0.0160447 -0.210954 
0.0974521 0.017347 -0.193787 0.0601397 0.0326298 -0.194372 0.0146967 0.0302666 -0.211506 
0.0363769 0.0218755 -0.210783 0.116883 0.26489 0.00652962 0.0345761 0.0209068 -0.212147 
0.0730712 0.0206247 -0.199421 0.0765173 0.0185842 -0.199859 0.0686535 0.0212857 -0.200389 
0.0397225 0.0185657 -0.212249 0.0308738 0.0221693 -0.212404 0.0448173 0.0160572 -0.212499 
0.0635708 0.0221986 -0.201384 0.052355 0.0268885 -0.201485 0.021058 0.0262011 -0.212549 
0.0570059 0.0107684 -0.21254 0.0892991 0.0112019 -0.201339 0.0304609 0.0219379 -0.212724 
0.0507941 0.0133368 -0.212618 0.0545266 0.0217041 -0.204813 0.0770152 0.0108665 -0.205733 
0.0574831 0.0107312 -0.212408 0.0818489 0.0085159 -0.205948 0.0284162 0.023592 -0.212117 
0.0328594 0.0213888 -0.212347 0.0468458 0.0214787 -0.207573 0.0460714 0.0242533 -0.205661 
0.0648336 0.0078767 -0.212171 0.0738015 0.00905475 -0.208232 0.0659427 0.00818642 -0.211555 
0.0359801 0.0227389 -0.21024 0.0738419 0.00697334 -0.209848 0.00298996 0.303891 -0.00124622 
0.0383315 0.0212521 -0.210613 0.0382613 -0.192563 -0.378015 0.0307831 -0.188593 -0.377423 
0.0302462 -0.184892 -0.374706 0.0495379 -0.195572 -0.376578 0.0534746 -0.19599 -0.375581 
0.031676 -0.186049 -0.37513 0.0601126 -0.19729 -0.374367 0.036867 -0.185123 -0.37266 
0.0666678 -0.197753 -0.372524 0.0818631 0.25518 -0.0128497 0.086151 0.197041 -0.0569197 
0.0757298 -0.19726 -0.369091 0.0521485 -0.186075 -0.368266 0.0290715 0.385213 0.071186 
0.0601978 -0.187086 -0.36635 0.0774462 -0.193907 -0.365889 0.0379448 0.236784 -0.0420225 
0.0748556 -0.190892 -0.3644 0.0697989 -0.190099 -0.365479 0.0879724 0.283482 0.0113606 
-0.00562624 0.367956 0.0460074 0.0252548 0.226966 -0.0539759 0.0187582 0.189853 -0.0852135 
0.0265676 0.507138 0.165789 0.0993601 0.229359 -0.0271783 0.0309784 -0.113165 -0.318311 
0.031351 -0.149384 -0.346538 0.0770489 0.417712 0.112764 -0.00784099 0.312559 0.00189667 
0.0624072 0.437936 0.123671 -0.00920996 0.485333 0.136688 0.0186377 0.515151 0.169395 
0.0697288 -0.0826519 -0.281391 -0.00783789 0.247025 -0.0494033 0.0771123 0.0568779 -0.169682 
0.0920241 0.0720079 -0.152823 0.0695018 0.0378188 -0.187161 0.0490958 0.033145 -0.197683 
0.0942188 0.037201 -0.179332 0.0757128 0.596167 0.252012 0.101144 0.098197 -0.129254 
0.0786775 0.296751 0.018622 0.080368 0.250061 -0.0173594 0.078023 0.230927 -0.0331271 
0.0994096 0.271135 0.00554205 0.0180474 0.0857255 -0.166965 0.0113453 0.0501717 -0.197051 
0.055154 0.0478997 -0.184096 0.112678 0.233996 -0.0190689 0.0480783 0.0735634 -0.166385 
0.0912546 0.0811393 -0.145933 0.0763676 0.479765 0.161111 0.0168604 0.0868426 -0.166489 
0.0699879 0.0728033 -0.159611 0.0440164 -0.145098 -0.338923 0.0887005 0.466072 0.154539 
0.101138 0.553849 0.227435 -0.00722298 0.093029 -0.169746 0.0534878 0.0665719 -0.170039 
0.0811836 0.450979 0.140197 0.0441091 -0.0455189 -0.26094 0.000634356 0.498778 0.150523 
0.0444055 -0.158223 -0.349067 0.0464608 0.435303 0.116246 0.107468 0.172094 -0.069279 
0.00995323 0.443223 0.110168 0.0485041 0.000211339 -0.223663 -0.0254179 0.284347 -0.0260995 
-0.0254179 0.227935 -0.0702595 0.00970278 0.602576 0.234828 0.0456773 -0.102776 -0.305234 
0.0613137 -0.128282 -0.319942 0.0449335 -0.0723696 -0.281681 0.0202684 0.370695 0.0568608 
0.0093232 0.188416 -0.0895111 0.0789094 0.0135424 -0.203001 0.0715032 0.5103 0.183378 
0.049467 -0.180756 -0.365004 0.0401046 0.0664633 -0.174625 0.0856773 0.378724 0.0851453 
0.0516841 -0.033231 -0.248773 0.0455006 -0.11323 -0.313477 0.0514056 -0.0939541 -0.296401 
0.0517252 -0.0723986 -0.27942 0.0893157 0.241145 -0.02133 0.0973649 0.0524356 -0.166348 
0.0318456 0.390499 0.0762575 0.0209894 0.416385 0.0928703 0.0815418 0.555283 0.221967 
0.0287809 0.175057 -0.093425 0.0097138 0.160085 -0.111558 0.045272 -0.0178166 -0.238863 
0.0445501 -0.192992 -0.376236 0.019915 0.401444 0.0808126 0.0313441 0.535858 0.189879 
-0.0254179 0.455498 0.107881 0.023358 0.531085 0.183456 0.0988048 0.505806 0.189042 
0.113837 0.0845525 -0.135666 0.016559 0.544404 0.191596 0.0888184 0.416084 0.115448 
0.0300205 0.0857048 -0.162954 0.0774258 0.0949961 -0.139737 0.00943159 0.168992 -0.10468 
0.0446968 -0.0881817 -0.294139 0.0808733 0.437775 0.129756 0.0834185 0.491826 0.172924 
0.0476303 -0.139406 -0.333252 0.0291894 0.160311 -0.10483 -0.00387082 0.526326 0.170573 
0.0769635 0.490413 0.169647 0.0800174 0.382949 0.0865498 0.0759979 0.438434 0.128632 
0.0378265 0.41454 0.0970883 0.0826975 0.373136 0.0797692 0.00835968 0.3481 0.0351678 
0.0192223 0.162297 -0.106628 -0.00466247 0.0981861 -0.164848 0.0523097 -0.163596 -0.350615 
0.0349407 0.397431 0.0827248 0.0845338 0.0250446 -0.192106 0.0807437 0.32571 0.041986 
-0.00482197 0.608989 0.234964 0.0764704 0.213842 -0.0470237 0.116101 0.0834237 -0.135789 
0.0502917 0.0823317 -0.158777 0.0859982 0.397595 0.100026 0.0855411 0.304711 0.0271613 
0.0317165 -0.0548052 -0.272377 -0.0162112 0.535368 0.173501 0.0397426 -0.115081 -0.316863 
0.011341 0.0858854 -0.169095 0.134137 0.0858854 -0.127796 -0.0254179 0.10161 -0.169149 
0.0910166 0.163956 -0.0811826 0.0984251 0.323672 0.0463376 0.0286687 0.19001 -0.081757 
0.00890829 0.593829 0.227714 0.0106011 0.558922 0.200957 0.109916 0.49485 0.184203 
0.0727618 0.0654214 -0.164457 0.0866807 0.532289 0.205696 0.0736164 0.564002 0.226128 
0.0141479 0.365796 0.0509669 0.00880717 0.219686 -0.0652065 0.0426008 0.042499 -0.192545 
0.103399 0.208382 -0.0422408 0.0114906 0.149434 -0.119298 0.0586048 0.0304937 -0.196561 
0.0787981 0.464046 0.149624 0.116807 0.282828 0.0205463 0.0781998 -0.0653193 -0.264974 
0.11766 0.250214 -0.00469726 -0.000733499 0.488619 0.142111 0.0304899 0.00857463 -0.223175 
-0.00955362 0.444679 0.104747 0.0249007 0.120935 -0.137097 0.0841729 0.337405 0.0522944 
0.0282708 0.215275 -0.0621129 0.0110408 0.0679763 -0.183216 0.03029 -0.014365 -0.2412 
0.0911163 0.334953 0.0527099 0.0302929 -0.171646 -0.364321 0.0304546 -0.16012 -0.355244 
0.0974185 0.480249 0.16857 0.0116442 0.333661 0.0249691 0.00899782 0.27142 -0.0246442 
-0.0254179 0.392208 0.0583365 0.0308934 -0.0942025 -0.303495 0.111731 0.324098 0.0511461 
0.100515 0.546113 0.221171 0.0871781 0.0580529 -0.165377 0.0977139 0.513145 0.194421 
0.0947357 0.393524 0.0997778 0.0464608 0.359058 0.0565596 0.114068 0.163023 -0.0741607 
0.0059363 0.51918 0.168278 0.0973781 0.169582 -0.0746391 0.120696 0.120947 -0.104869 
0.0778831 0.158338 -0.0899983 0.0317264 0.482018 0.14786 0.0973781 0.119183 -0.114093 
0.0149531 0.430362 0.101782 0.121556 0.544303 0.226831 0.123466 0.514342 0.204019 
0.113232 0.0821171 -0.137776 0.0464455 0.169302 -0.091989 0.125436 0.459843 0.162019 
0.0248451 0.331525 0.0277367 0.0627898 0.0796287 -0.156689 0.123996 0.403646 0.117542 
0.0268313 0.0525539 -0.189978 0.108607 0.287506 0.0214505 0.113493 0.154327 -0.0811609 
0.120457 0.24457 -0.00817473 0.0397459 0.0987589 -0.149464 0.123563 0.200891 -0.0413231 
0.0973782 0.596877 0.259854 0.0973782 0.56063 0.231479 0.0973781 0.186508 -0.0613894 
0.0973782 0.521333 0.200717 0.0969712 0.496921 0.181471 0.0973782 0.46491 0.156548 
0.0973781 0.439708 0.13682 0.0973781 0.408486 0.112379 0.097486 0.383283 0.0926859 
0.0972497 0.35463 0.0701769 0.0973781 0.328547 0.0498015 0.0977254 0.306249 0.032463 
0.0973781 0.212113 -0.0413454 0.0957047 0.0500275 -0.168792 0.0887521 0.028208 -0.188211 
0.0971162 0.372939 0.0844642 -0.0254179 0.407649 0.0704236 0.090495 0.333224 0.0511481 
0.0563613 0.0194757 -0.20594 0.0260752 0.546798 0.196671 0.0620948 0.560664 0.219639 
0.101118 0.0342266 -0.17934 0.025444 0.0326075 -0.206059 0.0668323 0.088215 -0.148608 
-0.0140268 0.592507 0.218965 0.113666 0.516634 0.202517 0.0464607 0.152617 -0.105045 
0.103218 0.114748 -0.1156 0.101791 0.0631187 -0.156496 0.111842 0.0704364 -0.147388 
0.0540586 -0.0108159 -0.230427 0.105144 0.34359 0.0641892 0.0390623 -0.00992548 -0.234774 
0.039235 -0.0650787 -0.277891 0.0464608 0.220942 -0.0515594 0.0656458 0.0892601 -0.148189 
0.0297077 0.55769 0.206419 0.047078 -0.0103922 -0.232443 0.027612 0.154472 -0.109932 
0.0389135 -0.0941266 -0.300738 0.00608083 0.123591 -0.141347 0.011454 0.49926 0.154539 
0.0212048 0.462212 0.128817 0.116055 0.128042 -0.100876 0.109456 0.124993 -0.105482 
0.00517992 0.479902 0.137275 0.115272 0.42218 0.129117 0.114842 0.362138 0.0819711 
0.0223076 0.451849 0.121075 0.0503301 0.098842 -0.145839 -0.00489731 0.598731 0.226908 
0.114113 0.477098 0.171719 0.00108062 0.234446 -0.0562506 -0.00628979 0.145739 -0.12817 
0.113864 0.140732 -0.0916793 0.0872817 0.082181 -0.146454 0.00942894 0.481114 0.139653 
0.0585617 -0.0370756 -0.249469 0.0258765 0.377282 0.0639034 0.0978952 0.130464 -0.105088 
0.0990815 0.292173 0.0219002 0.00792654 0.575052 0.212685 0.00870416 0.615617 0.244701 
0.0996702 0.612926 0.273188 0.0645585 -0.0651771 -0.269451 0.0687956 0.0507812 -0.177252 
0.0611877 -0.113912 -0.308735 0.108015 0.601009 0.266667 -0.00817544 0.56434 0.198883 
0.0887533 0.469157 0.156973 0.0631276 -0.144775 -0.332243 -0.0133089 0.497445 0.14479 
0.0298807 0.433587 0.109327 0.0612636 -0.134525 -0.324845 0.0386508 0.0262304 -0.206609 
0.125872 0.338473 0.0671555 0.0464608 0.377131 0.0707081 0.00973906 0.275237 -0.0214072 
0.0715267 0.191977 -0.0658027 0.120769 0.291995 0.0290548 0.0942938 0.198172 -0.053296 
-0.0155083 0.140046 -0.135727 0.0784057 -0.132854 -0.317772 0.0469532 0.0946455 -0.15026 
0.0939051 0.11643 -0.117415 0.0485457 0.0820161 -0.159611 0.0622847 0.528786 0.194748 
0.0759337 0.271702 -0.00190995 0.0622585 0.476728 0.153988 0.00574311 0.384509 0.0627892 
0.0624264 0.414795 0.105562 0.0181813 0.145831 -0.119868 0.0137913 0.32548 0.0192873 
0.0195609 0.494965 0.153903 0.0375918 0.465326 0.136765 0.0192081 0.287357 -0.00873421 
0.0627211 0.388484 0.0850649 0.0622511 0.591658 0.243955 0.0621568 0.206241 -0.0577873 
0.0622583 0.186122 -0.0735031 0.0681092 0.383133 0.0826883 0.0619297 0.501459 0.173237 
0.0621875 0.33206 0.0407162 0.00970179 0.334794 0.0252029 0.0097268 0.388484 0.0672406 
0.0462951 0.272962 -0.0108933 0.0622584 0.359458 0.0621873 0.0625103 0.304467 0.0192247 
0.0624099 0.287649 0.00602552 0.0622583 0.263433 -0.0129826 0.0621644 0.237617 -0.0332233 
0.0409308 -0.0483191 -0.264201 0.0382356 -0.080339 -0.290173 0.0383915 -0.118366 -0.319889 
0.0327287 -0.171207 -0.363158 0.0366559 -0.0925711 -0.300279 0.0634467 0.0757737 -0.159486 
0.0329094 -0.00909066 -0.23619 0.103742 0.146431 -0.0906218 0.0464472 0.138755 -0.115901 
0.0352547 0.529879 0.186513 0.011993 0.610603 0.241882 0.0354407 -0.10064 -0.307005 
0.0329716 0.362697 0.0548716 0.0993701 0.275512 0.00895481 0.0121433 0.459844 0.123916 
0.0785027 0.593533 0.250888 0.0320368 -0.125109 -0.327304 0.0316496 -0.136965 -0.336715 
0.0809722 0.0784396 -0.151505 0.055089 0.106162 -0.138509 0.00224469 0.494459 0.147684 
0.0289093 0.432012 0.107767 0.00974514 0.218813 -0.0655743 0.0502415 -0.0753937 -0.282264 
0.0278715 0.198868 -0.0750911 -0.0254179 0.361961 0.0346582 0.00399395 0.236875 -0.0533696 
-0.0153301 0.605883 0.228998 0.0312185 -0.0837016 -0.295165 -0.00717842 0.26529 -0.0348829 
0.0599869 -0.0673465 -0.272687 0.0966883 0.595987 0.258925 0.0916944 0.356572 0.0698282 
0.00495642 0.289705 -0.0116893 0.134137 0.499531 0.196014 0.0310086 -0.167382 -0.360742 
0.0638628 -0.146774 -0.33356 0.0312024 -0.10025 -0.308125 0.0113201 0.336351 0.0269661 
0.00973577 0.404735 0.0799657 0.089783 0.602966 0.262066 -0.00536064 0.048606 -0.203895 
0.00954061 0.320499 0.0139583 0.0309083 -0.146949 -0.344781 0.0940071 0.411548 0.113643 
0.0621606 0.221929 -0.0455053 0.0468849 -0.137003 -0.331621 0.0357266 -0.165535 -0.35771 
-0.00433058 0.0882237 -0.172535 0.111594 0.532343 0.214117 0.0646585 0.0932254 -0.145417 
-0.0143253 0.582184 0.210784 0.0258842 0.600548 0.238683 0.119858 0.590493 0.262417 
0.00970178 0.485983 0.143556 0.0508599 0.0510261 -0.183092 0.0278511 0.179216 -0.0904818 
0.0990173 0.316726 0.0410995 0.0595882 0.0297251 -0.196832 0.0762379 0.0474645 -0.177345 
0.041469 -0.00238462 -0.228061 0.0433163 -0.159165 -0.35017 0.00422335 0.536667 0.18139 
0.0973781 0.0930641 -0.134539 0.0336859 -0.0510456 -0.268772 0.0341384 -0.0667079 -0.28088 
0.0345352 -0.11763 -0.320609 0.0454932 0.109484 -0.139135 0.0329429 -0.0376377 -0.258526 
0.0342786 -0.0235982 -0.247086 0.0101318 0.158031 -0.113025 0.0278625 0.0364162 -0.202264 
0.115853 0.0343442 -0.174292 0.0502771 -0.140714 -0.333386 0.00972578 0.17631 -0.0988522 
0.124119 0.484299 0.18072 0.0753872 -0.0185627 -0.229318 0.0885393 0.264843 -0.00303944 
0.1113 0.0449585 -0.167515 0.0411243 -0.130038 -0.328106 0.0226739 0.525392 0.178769 
0.0752426 -0.105246 -0.297224 0.108039 0.263218 0.00224681 0.0773053 -0.0931196 -0.287038 
0.118223 0.264018 0.00629799 0.116177 0.30725 0.0394523 0.0732198 -0.0954137 -0.290207 
0.111206 0.571923 0.244971 0.0460718 0.00128228 -0.223643 0.0731024 -0.169546 -0.348279 
0.0706614 -0.0411194 -0.248565 0.115013 0.500868 0.190628 0.05977 0.0241805 -0.201111 
0.114452 0.332846 0.0589096 0.114475 0.391505 0.104837 0.120289 0.441099 0.145615 
0.0223397 0.0419057 -0.199824 0.0826351 0.324839 0.0419406 0.0604829 -0.176545 -0.358003 
0.0558294 -0.17465 -0.358084 0.0570493 0.00349905 -0.218216 0.00142131 0.321786 0.0122349 
0.0545527 -0.173166 -0.357351 0.0202922 0.31555 0.0137001 0.0548228 -0.0893932 -0.291682 
0.0777618 0.0316886 -0.189182 0.0171579 0.302366 0.00232525 0.0205313 0.252458 -0.0356092 
0.0768068 0.463491 0.148519 0.11618 0.106666 -0.117568 0.0068489 0.423616 0.0937747 
0.0306856 0.587104 0.229774 0.0778768 0.215855 -0.0449744 0.0324094 -0.0702287 -0.284218 
0.032492 0.00323737 -0.22668 0.105896 0.297908 0.0286821 0.100223 0.186247 -0.0606365 
0.026108 0.556646 0.204391 0.0992267 0.232564 -0.0247137 -0.000981843 0.50584 0.155508 
0.0478932 -0.117941 -0.31636 0.0730239 0.363623 0.0690689 0.0171212 0.346344 0.0367395 
0.0334236 -0.0374027 -0.25818 -0.00747831 0.599493 0.226636 0.102706 0.583666 0.251304 
0.0290502 0.405066 0.0867205 0.0326963 -0.0842151 -0.29507 0.122476 0.0961422 -0.123688 
0.0329439 -0.0987566 -0.30637 0.0303192 0.279525 -0.0111288 0.0989975 0.148186 -0.0908435 
0.0809062 0.15383 -0.0925098 0.036723 0.0435828 -0.193674 0.0252275 0.425566 0.101483 
-0.00895046 0.308938 -0.0013112 -0.0109388 0.244132 -0.0527108 0.0559846 -0.0602242 -0.268457 
-0.00398561 0.35011 0.0325888 0.000521037 0.289973 -0.0129712 -0.000206387 0.229328 -0.0606897 
0.116568 0.589652 0.260653 0.0653518 0.00296546 -0.215841 -0.0114425 0.29543 -0.0127231 
-0.0111213 0.556521 0.191772 -0.00247918 0.325143 0.0135508 -0.00641366 0.158112 -0.118526 
0.0945517 0.560017 0.230049 0.0280829 0.583858 0.226357 0.0686809 -0.100083 -0.295389 
0.0371114 0.140337 -0.117802 0.0378353 0.0104461 -0.219239 0.117916 0.136421 -0.0936907 
0.0306667 0.136847 -0.122702 0.0464608 0.287927 0.000877563 0.0129172 0.0957273 -0.160861 
0.124931 0.426941 0.136093 -0.000800629 0.464714 0.123374 0.0802914 0.0951343 -0.138665 
0.0694441 -0.0689164 -0.270735 0.00972352 0.232672 -0.0547324 0.0403826 -0.143638 -0.339003 
0.0381547 -0.153016 -0.347093 0.0793975 0.127154 -0.1139 0.0246937 0.610398 0.245993 
0.0793587 0.121074 -0.118673 0.018195 0.274559 -0.0190941 0.116146 0.377294 0.0942735 
0.0278537 0.129423 -0.12946 0.070756 0.0426546 -0.182954 0.046464 0.547157 0.203808 
0.042393 -0.0500723 -0.265081 0.0827667 0.516607 0.192103 0.0701565 0.112794 -0.128249 
0.0713446 0.14464 -0.10292 0.0759583 0.11602 -0.123772 0.0308582 0.122275 -0.134044 
0.0813038 0.177488 -0.0738567 0.100329 0.319308 0.0435614 0.0636163 0.110115 -0.132546 
0.0338707 0.114825 -0.138864 0.0356747 0.116268 -0.137127 0.0439281 0.11127 -0.138264 
0.0586437 0.107934 -0.135926 0.0406946 0.111167 -0.139432 0.134137 0.358397 0.0855316 
0.0827221 0.138202 -0.104133 0.0749616 0.541678 0.209104 -0.00703834 0.543425 0.182893 
0.0372073 0.0812768 -0.164003 -0.00848768 0.128374 -0.142503 -0.0078225 0.164066 -0.114339 
-0.00703833 0.614088 0.23821 0.0293659 0.613308 0.249842 0.0806379 0.614088 0.267697 
0.115758 0.614088 0.279509 -0.00703848 0.0590491 -0.196284 0.115758 0.0590491 -0.154985 
0.0770281 -0.126656 -0.313384 -0.00277721 0.578891 0.21209 -0.0071359 0.463546 0.12033 
0.0247739 0.564836 0.210353 0.105612 0.607999 0.27133 0.0296485 0.0635685 -0.180408 
0.0297716 0.0396492 -0.199091 0.0196305 0.166364 -0.103307 0.071952 0.017146 -0.20252 
0.0451658 -0.0316927 -0.249761 0.0621983 0.0385634 -0.189035 0.0295908 0.268682 -0.0198615 
0.0282187 0.0598168 -0.183826 0.106046 0.0658367 -0.152938 0.044416 0.028591 -0.202822 
0.0973781 0.248967 -0.0124947 0.0232624 0.107042 -0.148524 0.0180908 0.580869 0.220656 
-0.00642299 0.0785476 -0.180814 0.0921612 0.178885 -0.0691114 0.0362663 0.0503788 -0.188507 
0.0626345 0.514761 0.183887 0.010028 0.061044 -0.188983 0.0920215 0.540283 0.21375 
0.034082 0.0667939 -0.176392 0.0621458 0.160895 -0.0932889 0.00892742 0.563573 0.204035 
0.0455047 -0.162141 -0.351764 0.0449052 -0.0360883 -0.253289 0.0426739 -0.0645831 -0.276346 
0.0462944 -0.113722 -0.313595 0.0654965 -0.185439 -0.363279 0.0436844 -0.124438 -0.322862 
0.104433 0.547718 0.223745 -0.0150867 0.411262 0.0767266 0.0370183 0.567761 0.216761 
0.0918544 0.110355 -0.122861 -0.0164717 0.275479 -0.030033 0.118833 0.501223 0.192191 
0.0171707 0.385275 0.0672319 0.0331242 0.321093 0.0223549 0.115851 0.326544 0.0544465 
0.11589 0.389556 0.103786 0.116362 0.444036 0.146593 0.00847932 0.047018 -0.200484 
0.0965809 0.0807821 -0.144422 0.0790253 0.110581 -0.126999 0.0974039 0.119242 -0.114038 
0.0966127 0.331042 0.0514976 0.00420951 0.336027 0.0243211 0.0821805 0.523854 0.197579 
-0.0016086 0.589336 0.22066 0.00868794 0.580502 0.217207 0.0908076 0.309406 0.0326076 
0.0391971 0.035245 -0.199369 0.0788833 -0.195114 -0.36635 0.03956 -0.0820045 -0.291031 
0.0768861 -0.0501514 -0.253542 0.0764982 -0.0709815 -0.269979 0.076813 -0.114144 -0.303661 
0.0433025 0.0114571 -0.216609 0.0763096 -0.140702 -0.32462 0.0763802 -0.158073 -0.338196 
0.0314115 0.0388774 -0.199143 0.0135038 0.040671 -0.203762 0.0342624 -0.174831 -0.365479 
0.0498812 0.0158016 -0.210996 0.0597976 -0.186535 -0.366054 0.021827 0.0348277 -0.205537 
0.0523415 0.0139192 -0.211642 0.0302635 -0.0584973 -0.275756 0.0808254 0.348612 0.059942 
0.0429959 0.0216342 -0.208746 0.0620187 0.0589 -0.173175 0.1128 0.189752 -0.0536629 
0.0381423 0.0987049 -0.150046 0.0541609 -0.183648 -0.365689 0.0318553 0.0292839 -0.206504 
0.0425336 -0.187335 -0.372486 0.0408766 -0.188334 -0.373825 -0.0018817 0.0619433 -0.192284 
0.0134685 0.111178 -0.14858 0.045776 0.0310667 -0.200427 0.0393792 -0.186045 -0.372537 
0.060439 -0.189184 -0.367911 0.0510404 0.0223173 -0.205505 0.057869 -0.187971 -0.367826 
0.0441687 -0.184343 -0.369594 0.0450966 0.0129904 -0.214806 0.0882375 0.10022 -0.132011 
-0.0144584 0.517258 0.159914 -0.0143959 0.449881 0.107191 -0.0139591 0.391113 0.0613327 
-0.0156843 0.35609 0.033336 -0.0120282 0.333193 0.0166414 -0.0125663 0.276689 -0.0277718 
0.0312127 0.436181 0.111805 -0.0142869 0.222046 -0.0711256 -0.0144071 0.187491 -0.0982163 